version 3
run VoIP-0-20220428-00:36:34-269061
attr configname VoIP
attr datetime 20220428-00:36:34
attr datetimef 20220428-003634
attr experiment VoIP
attr inifile omnetpp.ini
attr iterationvars ""
attr iterationvarsd ""
attr iterationvarsf ""
attr measurement ""
attr network MultiCell
attr processid 269061
attr repetition 0
attr replication #0
attr resultdir results
attr runnumber 0
attr seedset 0
config image-path ../../../inet4.3/images:../../../simu5G/images
config output-scalar-file results/VoIP--0.sca
config output-vector-file results/VoIP--0.vec
config sim-time-limit 10s
config repeat 1
config *.ue*.numApps 1
config *.server.numApps 4
config **.ue1*.macCellId 1
config **.ue1*.masterId 1
config **.ue2*.macCellId 2
config **.ue2*.masterId 2
config *.ue*.app[*].typename VoIPReceiver
config *.ue*.app[0].localPort 3000
config *.server.app[*].PacketSize 40
config *.server.app[0].destAddress "\"ue11\""
config *.server.app[1].destAddress "\"ue12\""
config *.server.app[2].destAddress "\"ue21\""
config *.server.app[3].destAddress "\"ue22\""
config *.server.app[*].destPort 3000
config *.server.app[*].localPort 3088+ancestorIndex(0)
config *.server.app[*].typename VoIPSender
config *.server.app[*].startTime uniform(0s,0.02s)
config image-path ../../images
config output-scalar-file-append false
config sim-time-limit 20s
config network MultiCell
config **.routingRecorder.enabled false
config **.scalar-recording true
config **.vector-recording true
config seed-set 0
config **.cellularNic.channelModel[0].downlink_interference true
config **.mobility.constraintAreaMinZ 0m
config **.mobility.constraintAreaMaxZ 0m
config **.mobility.initFromDisplayString true
config **.numBands 6
config **.ueTxPower 26
config **.eNodeBTxPower 40
config *.configurator.config "xmldoc(\"./demo.xml\")"

vector 0 MultiCell.server.ppp[0].ppp transmissionState:vector ETV
attr interpolationmode sample-hold
attr source transmissionStateChanged
attr title "tx state, vector"
vector 1 MultiCell.router.ppp[0].ppp transmissionState:vector ETV
attr interpolationmode sample-hold
attr source transmissionStateChanged
attr title "tx state, vector"
vector 2 MultiCell.router.ppp[1].ppp transmissionState:vector ETV
attr interpolationmode sample-hold
attr source transmissionStateChanged
attr title "tx state, vector"
vector 3 MultiCell.pgw.ppp[0].ppp transmissionState:vector ETV
attr interpolationmode sample-hold
attr source transmissionStateChanged
attr title "tx state, vector"
vector 4 MultiCell.pgw.ppp[1].ppp transmissionState:vector ETV
attr interpolationmode sample-hold
attr source transmissionStateChanged
attr title "tx state, vector"
vector 5 MultiCell.pgw.pppIf.ppp transmissionState:vector ETV
attr interpolationmode sample-hold
attr source transmissionStateChanged
attr title "tx state, vector"
vector 6 MultiCell.eNB1.pppIf.ppp transmissionState:vector ETV
attr interpolationmode sample-hold
attr source transmissionStateChanged
attr title "tx state, vector"
vector 7 MultiCell.eNB1.x2ppp[0].ppp transmissionState:vector ETV
attr interpolationmode sample-hold
attr source transmissionStateChanged
attr title "tx state, vector"
vector 8 MultiCell.eNB1.pppMEHostIf.ppp transmissionState:vector ETV
attr interpolationmode sample-hold
attr source transmissionStateChanged
attr title "tx state, vector"
vector 9 MultiCell.eNB2.pppIf.ppp transmissionState:vector ETV
attr interpolationmode sample-hold
attr source transmissionStateChanged
attr title "tx state, vector"
vector 10 MultiCell.eNB2.x2ppp[0].ppp transmissionState:vector ETV
attr interpolationmode sample-hold
attr source transmissionStateChanged
attr title "tx state, vector"
vector 11 MultiCell.eNB2.pppMEHostIf.ppp transmissionState:vector ETV
attr interpolationmode sample-hold
attr source transmissionStateChanged
attr title "tx state, vector"
vector 12 MultiCell.ue11.cellularNic.phy servingCell:vector ETV
attr source servingCell
attr title "ID of the serving eNodeB for the UE, vector"
attr unit ""
vector 13 MultiCell.ue12.cellularNic.phy servingCell:vector ETV
attr source servingCell
attr title "ID of the serving eNodeB for the UE, vector"
attr unit ""
vector 14 MultiCell.ue21.cellularNic.phy servingCell:vector ETV
attr source servingCell
attr title "ID of the serving eNodeB for the UE, vector"
attr unit ""
vector 15 MultiCell.ue22.cellularNic.phy servingCell:vector ETV
attr source servingCell
attr title "ID of the serving eNodeB for the UE, vector"
attr unit ""
vector 16 MultiCell.eNB1.cellularNic.mac avgServedBlocksUl:vector ETV
attr source avgServedBlocksUl
attr title "LTE Avg Served Blocks Ul, vector"
attr unit blocks
vector 17 MultiCell.eNB1.cellularNic.mac avgServedBlocksDl:vector ETV
attr source avgServedBlocksDl
attr title "LTE Avg Served Blocks Dl, vector"
attr unit blocks
vector 18 MultiCell.eNB2.cellularNic.mac avgServedBlocksUl:vector ETV
attr source avgServedBlocksUl
attr title "LTE Avg Served Blocks Ul, vector"
attr unit blocks
vector 19 MultiCell.eNB2.cellularNic.mac avgServedBlocksDl:vector ETV
attr source avgServedBlocksDl
attr title "LTE Avg Served Blocks Dl, vector"
attr unit blocks
vector 20 MultiCell.ue11.cellularNic.channelModel[0] measuredSinrUl:vector ETV
attr source measuredSinrUl
attr title "SINR measured at feedback computation, UL, vector"
attr unit dB
vector 21 MultiCell.ue11.cellularNic.channelModel[0] measuredSinrDl:vector ETV
attr source measuredSinrDl
attr title "SINR measured at feedback computation, DL, vector"
attr unit dB
vector 22 MultiCell.eNB1.cellularNic.mac receivedPacketFromLowerLayer:vector(packetBytes) ETV
attr interpolationmode none
attr source receivedPacketFromLowerLayer
vector 23 MultiCell.ue12.cellularNic.channelModel[0] measuredSinrUl:vector ETV
attr source measuredSinrUl
attr title "SINR measured at feedback computation, UL, vector"
attr unit dB
vector 24 MultiCell.ue12.cellularNic.channelModel[0] measuredSinrDl:vector ETV
attr source measuredSinrDl
attr title "SINR measured at feedback computation, DL, vector"
attr unit dB
vector 25 MultiCell.ue21.cellularNic.channelModel[0] measuredSinrUl:vector ETV
attr source measuredSinrUl
attr title "SINR measured at feedback computation, UL, vector"
attr unit dB
vector 26 MultiCell.ue21.cellularNic.channelModel[0] measuredSinrDl:vector ETV
attr source measuredSinrDl
attr title "SINR measured at feedback computation, DL, vector"
attr unit dB
vector 27 MultiCell.eNB2.cellularNic.mac receivedPacketFromLowerLayer:vector(packetBytes) ETV
attr interpolationmode none
attr source receivedPacketFromLowerLayer
vector 28 MultiCell.ue22.cellularNic.channelModel[0] measuredSinrUl:vector ETV
attr source measuredSinrUl
attr title "SINR measured at feedback computation, UL, vector"
attr unit dB
vector 29 MultiCell.ue22.cellularNic.channelModel[0] measuredSinrDl:vector ETV
attr source measuredSinrDl
attr title "SINR measured at feedback computation, DL, vector"
attr unit dB
vector 30 MultiCell.server.app[1] voIPGeneratedThroughput:vector ETV
attr source voIPGeneratedThroughput
attr title "Throughput generated by the application, vector"
attr unit Bps
vector 31 MultiCell.server.udp packetSent:vector(packetBytes) ETV
attr interpolationmode none
attr source packetSent
attr title "packets sent, vector(packetBytes)"
vector 32 MultiCell.server.ppp[0].ppp rcvdPkFromHl:vector(packetBytes) ETV
attr interpolationmode none
attr source packetReceivedFromUpper
attr title "packets received from higher layer, vector(packetBytes)"
vector 33 MultiCell.server.ppp[0].ppp.queue packetPushed:vector(packetBytes) ETV
attr interpolationmode none
attr title "packet pushed, vector(packetBytes)"
vector 34 MultiCell.server.ppp[0].ppp.queue queueLength:vector ETV
attr autoWarmupFilter false
attr interpolationmode sample-hold
attr source "warmup(count(packetPushed) - count(packetPulled) - count(packetRemoved) - count(packetDropped))"
attr title "queue length, vector"
attr type int
vector 35 MultiCell.server.ppp[0].ppp.queue packetPulled:vector(packetBytes) ETV
attr interpolationmode none
attr title "packet pulled, vector(packetBytes)"
vector 36 MultiCell.server.ppp[0].ppp.queue queueingTime:vector ETV
attr interpolationmode none
attr source queueingTime(packetPulled)
attr title "queueing times, vector"
attr unit s
vector 37 MultiCell.server.ppp[0].ppp txPk:vector(packetBytes) ETV
attr interpolationmode none
attr source packetSentToLower
attr title "packets transmitted, vector(packetBytes)"
vector 38 MultiCell.router.ppp[0].ppp rxPkOk:vector(packetBytes) ETV
attr interpolationmode none
attr source rxPkOk
attr title "packets received OK, vector(packetBytes)"
vector 39 MultiCell.router.ppp[0].ppp passedUpPk:vector(packetBytes) ETV
attr interpolationmode none
attr source packetSentToUpper
attr title "packets passed to higher layer, vector(packetBytes)"
vector 40 MultiCell.router.ppp[1].ppp rcvdPkFromHl:vector(packetBytes) ETV
attr interpolationmode none
attr source packetReceivedFromUpper
attr title "packets received from higher layer, vector(packetBytes)"
vector 41 MultiCell.router.ppp[1].ppp.queue packetPushed:vector(packetBytes) ETV
attr interpolationmode none
attr title "packet pushed, vector(packetBytes)"
vector 42 MultiCell.router.ppp[1].ppp.queue queueLength:vector ETV
attr autoWarmupFilter false
attr interpolationmode sample-hold
attr source "warmup(count(packetPushed) - count(packetPulled) - count(packetRemoved) - count(packetDropped))"
attr title "queue length, vector"
attr type int
vector 43 MultiCell.router.ppp[1].ppp.queue packetPulled:vector(packetBytes) ETV
attr interpolationmode none
attr title "packet pulled, vector(packetBytes)"
vector 44 MultiCell.router.ppp[1].ppp.queue queueingTime:vector ETV
attr interpolationmode none
attr source queueingTime(packetPulled)
attr title "queueing times, vector"
attr unit s
vector 45 MultiCell.router.ppp[1].ppp txPk:vector(packetBytes) ETV
attr interpolationmode none
attr source packetSentToLower
attr title "packets transmitted, vector(packetBytes)"
vector 46 MultiCell.pgw.pppIf.ppp rxPkOk:vector(packetBytes) ETV
attr interpolationmode none
attr source rxPkOk
attr title "packets received OK, vector(packetBytes)"
vector 47 MultiCell.pgw.pppIf.ppp passedUpPk:vector(packetBytes) ETV
attr interpolationmode none
attr source packetSentToUpper
attr title "packets passed to higher layer, vector(packetBytes)"
vector 48 MultiCell.pgw.udp packetSent:vector(packetBytes) ETV
attr interpolationmode none
attr source packetSent
attr title "packets sent, vector(packetBytes)"
vector 49 MultiCell.pgw.ppp[1].ppp rcvdPkFromHl:vector(packetBytes) ETV
attr interpolationmode none
attr source packetReceivedFromUpper
attr title "packets received from higher layer, vector(packetBytes)"
vector 50 MultiCell.pgw.ppp[1].ppp.queue packetPushed:vector(packetBytes) ETV
attr interpolationmode none
attr title "packet pushed, vector(packetBytes)"
vector 51 MultiCell.pgw.ppp[1].ppp.queue queueLength:vector ETV
attr autoWarmupFilter false
attr interpolationmode sample-hold
attr source "warmup(count(packetPushed) - count(packetPulled) - count(packetRemoved) - count(packetDropped))"
attr title "queue length, vector"
attr type int
vector 52 MultiCell.pgw.ppp[1].ppp.queue packetPulled:vector(packetBytes) ETV
attr interpolationmode none
attr title "packet pulled, vector(packetBytes)"
vector 53 MultiCell.pgw.ppp[1].ppp.queue queueingTime:vector ETV
attr interpolationmode none
attr source queueingTime(packetPulled)
attr title "queueing times, vector"
attr unit s
vector 54 MultiCell.pgw.ppp[1].ppp txPk:vector(packetBytes) ETV
attr interpolationmode none
attr source packetSentToLower
attr title "packets transmitted, vector(packetBytes)"
vector 55 MultiCell.eNB1.pppIf.ppp rxPkOk:vector(packetBytes) ETV
attr interpolationmode none
attr source rxPkOk
attr title "packets received OK, vector(packetBytes)"
vector 56 MultiCell.eNB1.pppIf.ppp passedUpPk:vector(packetBytes) ETV
attr interpolationmode none
attr source packetSentToUpper
attr title "packets passed to higher layer, vector(packetBytes)"
vector 57 MultiCell.eNB1.udp packetReceived:vector(packetBytes) ETV
attr interpolationmode none
attr source packetReceived
attr title "packets received, vector(packetBytes)"
vector 58 MultiCell.eNB1.udp passedUpPk:vector(count) ETV
attr interpolationmode none
attr source packetSentToUpper
attr title "packets passed up, vector(count)"
vector 59 MultiCell.eNB1.cellularNic.pdcpRrc receivedPacketFromUpperLayer:vector(packetBytes) ETV
attr interpolationmode none
attr source receivedPacketFromUpperLayer
vector 60 MultiCell.eNB1.cellularNic.pdcpRrc sentPacketToLowerLayer:vector(packetBytes) ETV
attr interpolationmode none
attr source sentPacketToLowerLayer
vector 61 MultiCell.eNB1.cellularNic.rlc.um receivedPacketFromUpperLayer:vector(packetBytes) ETV
attr interpolationmode none
attr source receivedPacketFromUpperLayer
vector 62 MultiCell.eNB1.cellularNic.mac receivedPacketFromUpperLayer:vector(packetBytes) ETV
attr interpolationmode none
attr source receivedPacketFromUpperLayer
vector 63 MultiCell.eNB1.cellularNic.mac measuredItbs:vector ETV
attr source measuredItbs
attr title "TBS index, vector"
attr unit ""
vector 64 MultiCell.eNB1.cellularNic.mac sentPacketToUpperLayer:vector(packetBytes) ETV
attr interpolationmode none
attr source sentPacketToUpperLayer
vector 65 MultiCell.eNB1.cellularNic.rlc.um rlcPacketLossDl:vector ETV
attr source rlcPacketLossDl
attr title "rlc Packet Loss, vector"
attr unit ""
vector 66 MultiCell.eNB1.cellularNic.rlc.um sentPacketToLowerLayer:vector(packetBytes) ETV
attr interpolationmode none
attr source sentPacketToLowerLayer
vector 67 MultiCell.eNB1.cellularNic.mac sentPacketToLowerLayer:vector(packetBytes) ETV
attr interpolationmode none
attr source sentPacketToLowerLayer
vector 68 MultiCell.ue12.cellularNic.phy averageCqiDl:vector ETV
attr source averageCqiDl
attr title "Average Cqi reported in DL, vector"
attr unit cqi
vector 69 MultiCell.ue12.cellularNic.channelModel[0] distance:vector ETV
attr source distance
attr title "distance between UE and serving base station, vector"
attr unit meters
vector 70 MultiCell.ue12.cellularNic.channelModel[0] rcvdSinrDl:vector ETV
attr source rcvdSinrDl
attr title "SINR measured at packet reception, DL, vector"
attr unit dB
vector 71 MultiCell.ue12.cellularNic.mac receivedPacketFromLowerLayer:vector(packetBytes) ETV
attr interpolationmode none
attr source receivedPacketFromLowerLayer
vector 72 MultiCell.server.app[2] voIPGeneratedThroughput:vector ETV
attr source voIPGeneratedThroughput
attr title "Throughput generated by the application, vector"
attr unit Bps
vector 73 MultiCell.pgw.ppp[0].ppp rcvdPkFromHl:vector(packetBytes) ETV
attr interpolationmode none
attr source packetReceivedFromUpper
attr title "packets received from higher layer, vector(packetBytes)"
vector 74 MultiCell.pgw.ppp[0].ppp.queue packetPushed:vector(packetBytes) ETV
attr interpolationmode none
attr title "packet pushed, vector(packetBytes)"
vector 75 MultiCell.pgw.ppp[0].ppp.queue queueLength:vector ETV
attr autoWarmupFilter false
attr interpolationmode sample-hold
attr source "warmup(count(packetPushed) - count(packetPulled) - count(packetRemoved) - count(packetDropped))"
attr title "queue length, vector"
attr type int
vector 76 MultiCell.pgw.ppp[0].ppp.queue packetPulled:vector(packetBytes) ETV
attr interpolationmode none
attr title "packet pulled, vector(packetBytes)"
vector 77 MultiCell.pgw.ppp[0].ppp.queue queueingTime:vector ETV
attr interpolationmode none
attr source queueingTime(packetPulled)
attr title "queueing times, vector"
attr unit s
vector 78 MultiCell.pgw.ppp[0].ppp txPk:vector(packetBytes) ETV
attr interpolationmode none
attr source packetSentToLower
attr title "packets transmitted, vector(packetBytes)"
vector 79 MultiCell.eNB2.pppIf.ppp rxPkOk:vector(packetBytes) ETV
attr interpolationmode none
attr source rxPkOk
attr title "packets received OK, vector(packetBytes)"
vector 80 MultiCell.eNB2.pppIf.ppp passedUpPk:vector(packetBytes) ETV
attr interpolationmode none
attr source packetSentToUpper
attr title "packets passed to higher layer, vector(packetBytes)"
vector 81 MultiCell.eNB2.udp packetReceived:vector(packetBytes) ETV
attr interpolationmode none
attr source packetReceived
attr title "packets received, vector(packetBytes)"
vector 82 MultiCell.eNB2.udp passedUpPk:vector(count) ETV
attr interpolationmode none
attr source packetSentToUpper
attr title "packets passed up, vector(count)"
vector 83 MultiCell.eNB2.cellularNic.pdcpRrc receivedPacketFromUpperLayer:vector(packetBytes) ETV
attr interpolationmode none
attr source receivedPacketFromUpperLayer
vector 84 MultiCell.eNB2.cellularNic.pdcpRrc sentPacketToLowerLayer:vector(packetBytes) ETV
attr interpolationmode none
attr source sentPacketToLowerLayer
vector 85 MultiCell.eNB2.cellularNic.rlc.um receivedPacketFromUpperLayer:vector(packetBytes) ETV
attr interpolationmode none
attr source receivedPacketFromUpperLayer
vector 86 MultiCell.eNB2.cellularNic.mac receivedPacketFromUpperLayer:vector(packetBytes) ETV
attr interpolationmode none
attr source receivedPacketFromUpperLayer
vector 87 MultiCell.eNB2.cellularNic.mac measuredItbs:vector ETV
attr source measuredItbs
attr title "TBS index, vector"
attr unit ""
vector 88 MultiCell.eNB2.cellularNic.mac sentPacketToUpperLayer:vector(packetBytes) ETV
attr interpolationmode none
attr source sentPacketToUpperLayer
vector 89 MultiCell.eNB2.cellularNic.rlc.um rlcPacketLossDl:vector ETV
attr source rlcPacketLossDl
attr title "rlc Packet Loss, vector"
attr unit ""
vector 90 MultiCell.eNB2.cellularNic.rlc.um sentPacketToLowerLayer:vector(packetBytes) ETV
attr interpolationmode none
attr source sentPacketToLowerLayer
vector 91 MultiCell.eNB2.cellularNic.mac sentPacketToLowerLayer:vector(packetBytes) ETV
attr interpolationmode none
attr source sentPacketToLowerLayer
vector 92 MultiCell.ue21.cellularNic.phy averageCqiDl:vector ETV
attr source averageCqiDl
attr title "Average Cqi reported in DL, vector"
attr unit cqi
vector 93 MultiCell.ue21.cellularNic.channelModel[0] distance:vector ETV
attr source distance
attr title "distance between UE and serving base station, vector"
attr unit meters
vector 94 MultiCell.ue21.cellularNic.channelModel[0] rcvdSinrDl:vector ETV
attr source rcvdSinrDl
attr title "SINR measured at packet reception, DL, vector"
attr unit dB
vector 95 MultiCell.ue21.cellularNic.mac receivedPacketFromLowerLayer:vector(packetBytes) ETV
attr interpolationmode none
attr source receivedPacketFromLowerLayer
vector 96 MultiCell.ue12.cellularNic.mac sentPacketToLowerLayer:vector(packetBytes) ETV
attr interpolationmode none
attr source sentPacketToLowerLayer
vector 97 MultiCell.eNB1.cellularNic.mac macDelayDl:vector ETV
attr source macDelayDl
attr title "Delay at the MAC layer UL, vector"
attr unit s
vector 98 MultiCell.ue12.cellularNic.mac sentPacketToUpperLayer:vector(packetBytes) ETV
attr interpolationmode none
attr source sentPacketToUpperLayer
vector 99 MultiCell.ue12.cellularNic.rlc.um receivedPacketFromLowerLayer:vector(packetBytes) ETV
attr interpolationmode none
attr source receivedPacketFromLowerLayer
vector 100 MultiCell.ue12.cellularNic.rlc.um rlcPduThroughputDl:vector ETV
attr source rlcPduThroughputDl
attr title "Throughput at the rlc layer DL, vector"
attr unit Bps
vector 101 MultiCell.ue12.cellularNic.rlc.um rlcPduDelayDl:vector ETV
attr source rlcPduDelayDl
attr title "Delay at the rlc layer UL, vector"
attr unit s
vector 102 MultiCell.ue12.cellularNic.rlc.um rlcThroughputDl:vector ETV
attr source rlcThroughputDl
attr title "Throughput at the rlc layer DL, vector"
attr unit Bps
vector 103 MultiCell.ue12.cellularNic.rlc.um rlcPacketLossDl:vector ETV
attr source rlcPacketLossDl
attr title "rlc Packet Loss, vector"
attr unit ""
vector 104 MultiCell.ue12.cellularNic.rlc.um rlcPacketLossTotal:vector ETV
attr source rlcPacketLossTotal
attr title "rlc Packet Loss, vector"
attr unit ""
vector 105 MultiCell.ue12.cellularNic.rlc.um rlcDelayDl:vector ETV
attr source rlcDelayDl
attr title "Delay at the rlc layer DL, vector"
attr unit s
vector 106 MultiCell.ue12.cellularNic.rlc.um sentPacketToUpperLayer:vector(packetBytes) ETV
attr interpolationmode none
attr source sentPacketToUpperLayer
vector 107 MultiCell.ue12.cellularNic.rlc.um rlcPduPacketLossDl:vector ETV
attr source rlcPduPacketLossDl
attr title "rlc Packet Loss, vector"
attr unit ""
vector 108 MultiCell.ue12.cellularNic.pdcpRrc receivedPacketFromLowerLayer:vector(packetBytes) ETV
attr interpolationmode none
attr source receivedPacketFromLowerLayer
vector 109 MultiCell.ue12.cellularNic.pdcpRrc sentPacketToUpperLayer:vector(packetBytes) ETV
attr interpolationmode none
attr source sentPacketToUpperLayer
vector 110 MultiCell.ue12.udp packetReceived:vector(packetBytes) ETV
attr interpolationmode none
attr source packetReceived
attr title "packets received, vector(packetBytes)"
vector 111 MultiCell.ue12.udp passedUpPk:vector(count) ETV
attr interpolationmode none
attr source packetSentToUpper
attr title "packets passed up, vector(count)"
vector 112 MultiCell.ue12.app[0] voIPReceivedThroughput:vector ETV
attr source voIPReceivedThroughput
attr title "Throughput received at the application level, vector"
attr unit Bps
vector 113 MultiCell.ue12.cellularNic.mac harqErrorRate_1st_Dl:vector ETV
attr source harqErrorRate_1st_Dl
attr title "Harq Error Rate Dl, vector"
attr unit ""
vector 114 MultiCell.ue12.cellularNic.mac harqErrorRateDl:vector ETV
attr source harqErrorRateDl
attr title "Harq Error Rate Dl, vector"
attr unit ""
vector 115 MultiCell.ue12.cellularNic.mac harqTxAttemptsDl:vector ETV
attr source harqTxAttemptsDl
attr title "Harq Tx Attempts Dl, vector"
attr unit ""
vector 116 MultiCell.ue21.cellularNic.mac sentPacketToLowerLayer:vector(packetBytes) ETV
attr interpolationmode none
attr source sentPacketToLowerLayer
vector 117 MultiCell.eNB2.cellularNic.mac macDelayDl:vector ETV
attr source macDelayDl
attr title "Delay at the MAC layer UL, vector"
attr unit s
vector 118 MultiCell.ue21.cellularNic.mac sentPacketToUpperLayer:vector(packetBytes) ETV
attr interpolationmode none
attr source sentPacketToUpperLayer
vector 119 MultiCell.ue21.cellularNic.rlc.um receivedPacketFromLowerLayer:vector(packetBytes) ETV
attr interpolationmode none
attr source receivedPacketFromLowerLayer
vector 120 MultiCell.ue21.cellularNic.rlc.um rlcPduThroughputDl:vector ETV
attr source rlcPduThroughputDl
attr title "Throughput at the rlc layer DL, vector"
attr unit Bps
vector 121 MultiCell.ue21.cellularNic.rlc.um rlcPduDelayDl:vector ETV
attr source rlcPduDelayDl
attr title "Delay at the rlc layer UL, vector"
attr unit s
vector 122 MultiCell.ue21.cellularNic.rlc.um rlcThroughputDl:vector ETV
attr source rlcThroughputDl
attr title "Throughput at the rlc layer DL, vector"
attr unit Bps
vector 123 MultiCell.ue21.cellularNic.rlc.um rlcPacketLossDl:vector ETV
attr source rlcPacketLossDl
attr title "rlc Packet Loss, vector"
attr unit ""
vector 124 MultiCell.ue21.cellularNic.rlc.um rlcPacketLossTotal:vector ETV
attr source rlcPacketLossTotal
attr title "rlc Packet Loss, vector"
attr unit ""
vector 125 MultiCell.ue21.cellularNic.rlc.um rlcDelayDl:vector ETV
attr source rlcDelayDl
attr title "Delay at the rlc layer DL, vector"
attr unit s
vector 126 MultiCell.ue21.cellularNic.rlc.um sentPacketToUpperLayer:vector(packetBytes) ETV
attr interpolationmode none
attr source sentPacketToUpperLayer
vector 127 MultiCell.ue21.cellularNic.rlc.um rlcPduPacketLossDl:vector ETV
attr source rlcPduPacketLossDl
attr title "rlc Packet Loss, vector"
attr unit ""
vector 128 MultiCell.ue21.cellularNic.pdcpRrc receivedPacketFromLowerLayer:vector(packetBytes) ETV
attr interpolationmode none
attr source receivedPacketFromLowerLayer
vector 129 MultiCell.ue21.cellularNic.pdcpRrc sentPacketToUpperLayer:vector(packetBytes) ETV
attr interpolationmode none
attr source sentPacketToUpperLayer
vector 130 MultiCell.ue21.udp packetReceived:vector(packetBytes) ETV
attr interpolationmode none
attr source packetReceived
attr title "packets received, vector(packetBytes)"
vector 131 MultiCell.ue21.udp passedUpPk:vector(count) ETV
attr interpolationmode none
attr source packetSentToUpper
attr title "packets passed up, vector(count)"
vector 132 MultiCell.ue21.app[0] voIPReceivedThroughput:vector ETV
attr source voIPReceivedThroughput
attr title "Throughput received at the application level, vector"
attr unit Bps
vector 133 MultiCell.ue21.cellularNic.mac harqErrorRate_1st_Dl:vector ETV
attr source harqErrorRate_1st_Dl
attr title "Harq Error Rate Dl, vector"
attr unit ""
vector 134 MultiCell.ue21.cellularNic.mac harqErrorRateDl:vector ETV
attr source harqErrorRateDl
attr title "Harq Error Rate Dl, vector"
attr unit ""
vector 135 MultiCell.ue21.cellularNic.mac harqTxAttemptsDl:vector ETV
attr source harqTxAttemptsDl
attr title "Harq Tx Attempts Dl, vector"
attr unit ""
vector 136 MultiCell.server.app[0] voIPGeneratedThroughput:vector ETV
attr source voIPGeneratedThroughput
attr title "Throughput generated by the application, vector"
attr unit Bps
vector 137 MultiCell.ue11.cellularNic.phy averageCqiDl:vector ETV
attr source averageCqiDl
attr title "Average Cqi reported in DL, vector"
attr unit cqi
vector 138 MultiCell.ue11.cellularNic.channelModel[0] distance:vector ETV
attr source distance
attr title "distance between UE and serving base station, vector"
attr unit meters
vector 139 MultiCell.ue11.cellularNic.channelModel[0] rcvdSinrDl:vector ETV
attr source rcvdSinrDl
attr title "SINR measured at packet reception, DL, vector"
attr unit dB
vector 140 MultiCell.ue11.cellularNic.mac receivedPacketFromLowerLayer:vector(packetBytes) ETV
attr interpolationmode none
attr source receivedPacketFromLowerLayer
vector 141 MultiCell.server.app[3] voIPGeneratedThroughput:vector ETV
attr source voIPGeneratedThroughput
attr title "Throughput generated by the application, vector"
attr unit Bps
vector 142 MultiCell.ue22.cellularNic.phy averageCqiDl:vector ETV
attr source averageCqiDl
attr title "Average Cqi reported in DL, vector"
attr unit cqi
vector 143 MultiCell.ue22.cellularNic.channelModel[0] distance:vector ETV
attr source distance
attr title "distance between UE and serving base station, vector"
attr unit meters
vector 144 MultiCell.ue22.cellularNic.channelModel[0] rcvdSinrDl:vector ETV
attr source rcvdSinrDl
attr title "SINR measured at packet reception, DL, vector"
attr unit dB
vector 145 MultiCell.ue22.cellularNic.mac receivedPacketFromLowerLayer:vector(packetBytes) ETV
attr interpolationmode none
attr source receivedPacketFromLowerLayer
vector 146 MultiCell.ue11.cellularNic.mac sentPacketToLowerLayer:vector(packetBytes) ETV
attr interpolationmode none
attr source sentPacketToLowerLayer
vector 147 MultiCell.ue11.cellularNic.mac sentPacketToUpperLayer:vector(packetBytes) ETV
attr interpolationmode none
attr source sentPacketToUpperLayer
vector 148 MultiCell.ue11.cellularNic.rlc.um receivedPacketFromLowerLayer:vector(packetBytes) ETV
attr interpolationmode none
attr source receivedPacketFromLowerLayer
vector 149 MultiCell.ue11.cellularNic.rlc.um rlcPduThroughputDl:vector ETV
attr source rlcPduThroughputDl
attr title "Throughput at the rlc layer DL, vector"
attr unit Bps
vector 150 MultiCell.ue11.cellularNic.rlc.um rlcPduDelayDl:vector ETV
attr source rlcPduDelayDl
attr title "Delay at the rlc layer UL, vector"
attr unit s
vector 151 MultiCell.ue11.cellularNic.rlc.um rlcThroughputDl:vector ETV
attr source rlcThroughputDl
attr title "Throughput at the rlc layer DL, vector"
attr unit Bps
vector 152 MultiCell.ue11.cellularNic.rlc.um rlcPacketLossDl:vector ETV
attr source rlcPacketLossDl
attr title "rlc Packet Loss, vector"
attr unit ""
vector 153 MultiCell.ue11.cellularNic.rlc.um rlcPacketLossTotal:vector ETV
attr source rlcPacketLossTotal
attr title "rlc Packet Loss, vector"
attr unit ""
vector 154 MultiCell.ue11.cellularNic.rlc.um rlcDelayDl:vector ETV
attr source rlcDelayDl
attr title "Delay at the rlc layer DL, vector"
attr unit s
vector 155 MultiCell.ue11.cellularNic.rlc.um sentPacketToUpperLayer:vector(packetBytes) ETV
attr interpolationmode none
attr source sentPacketToUpperLayer
vector 156 MultiCell.ue11.cellularNic.rlc.um rlcPduPacketLossDl:vector ETV
attr source rlcPduPacketLossDl
attr title "rlc Packet Loss, vector"
attr unit ""
vector 157 MultiCell.ue11.cellularNic.pdcpRrc receivedPacketFromLowerLayer:vector(packetBytes) ETV
attr interpolationmode none
attr source receivedPacketFromLowerLayer
vector 158 MultiCell.ue11.cellularNic.pdcpRrc sentPacketToUpperLayer:vector(packetBytes) ETV
attr interpolationmode none
attr source sentPacketToUpperLayer
vector 159 MultiCell.ue11.udp packetReceived:vector(packetBytes) ETV
attr interpolationmode none
attr source packetReceived
attr title "packets received, vector(packetBytes)"
vector 160 MultiCell.ue11.udp passedUpPk:vector(count) ETV
attr interpolationmode none
attr source packetSentToUpper
attr title "packets passed up, vector(count)"
vector 161 MultiCell.ue11.app[0] voIPReceivedThroughput:vector ETV
attr source voIPReceivedThroughput
attr title "Throughput received at the application level, vector"
attr unit Bps
vector 162 MultiCell.ue11.cellularNic.mac harqErrorRate_1st_Dl:vector ETV
attr source harqErrorRate_1st_Dl
attr title "Harq Error Rate Dl, vector"
attr unit ""
vector 163 MultiCell.ue11.cellularNic.mac harqErrorRateDl:vector ETV
attr source harqErrorRateDl
attr title "Harq Error Rate Dl, vector"
attr unit ""
vector 164 MultiCell.ue11.cellularNic.mac harqTxAttemptsDl:vector ETV
attr source harqTxAttemptsDl
attr title "Harq Tx Attempts Dl, vector"
attr unit ""
vector 165 MultiCell.ue22.cellularNic.mac sentPacketToLowerLayer:vector(packetBytes) ETV
attr interpolationmode none
attr source sentPacketToLowerLayer
vector 166 MultiCell.ue22.cellularNic.mac sentPacketToUpperLayer:vector(packetBytes) ETV
attr interpolationmode none
attr source sentPacketToUpperLayer
vector 167 MultiCell.ue22.cellularNic.rlc.um receivedPacketFromLowerLayer:vector(packetBytes) ETV
attr interpolationmode none
attr source receivedPacketFromLowerLayer