version 3
run VoIP-0-20220412-00:48:48-211217
attr configname VoIP
attr datetime 20220412-00:48:48
attr datetimef 20220412-004848
attr experiment VoIP
attr inifile omnetpp.ini
attr iterationvars ""
attr iterationvarsd ""
attr iterationvarsf ""
attr measurement ""
attr network MultiCell
attr processid 211217
attr repetition 0
attr replication #0
attr resultdir results
attr runnumber 0
attr seedset 0
config image-path ../../../inet4.3/images:../../../simu5G/images:../../../veins_inet/images:../../../veins/images
config output-scalar-file results/VoIP--0.sca
config output-vector-file results/VoIP--0.vec
config sim-time-limit 10s
config repeat 1
config *.ue*.numApps 1
config *.server.numApps 4
config **.ue1*.macCellId 1
config **.ue1*.masterId 1
config **.ue2*.macCellId 2
config **.ue2*.masterId 2
config *.ue*.app[*].typename VoIPReceiver
config *.ue*.app[0].localPort 3000
config *.server.app[*].PacketSize 40
config *.server.app[0].destAddress "\"ue11\""
config *.server.app[1].destAddress "\"ue12\""
config *.server.app[2].destAddress "\"ue21\""
config *.server.app[3].destAddress "\"ue22\""
config *.server.app[*].destPort 3000
config *.server.app[*].localPort 3088+ancestorIndex(0)
config *.server.app[*].typename VoIPSender
config *.server.app[*].startTime uniform(0s,0.02s)
config image-path ../../images
config output-scalar-file-append false
config sim-time-limit 20s
config network MultiCell
config **.routingRecorder.enabled false
config **.result-recording-modes all,-vector
config seed-set 0
config **.cellularNic.channelModel[0].downlink_interference true
config **.mobility.constraintAreaMinZ 0m
config **.mobility.constraintAreaMaxZ 0m
config **.mobility.initFromDisplayString true
config **.numBands 6
config **.ueTxPower 26
config **.eNodeBTxPower 40
config *.configurator.config "xmldoc(\"./demo.xml\")"

vector 0 MultiCell.eNB1.cellularNic.mac receivedPacketFromLowerLayer:vector(packetBytes) ETV
attr interpolationmode none
attr source receivedPacketFromLowerLayer
vector 1 MultiCell.eNB2.cellularNic.mac receivedPacketFromLowerLayer:vector(packetBytes) ETV
attr interpolationmode none
attr source receivedPacketFromLowerLayer
vector 2 MultiCell.server.udp packetSent:vector(packetBytes) ETV
attr interpolationmode none
attr source packetSent
attr title "packets sent, vector(packetBytes)"
vector 3 MultiCell.server.ppp[0].ppp rcvdPkFromHl:vector(packetBytes) ETV
attr interpolationmode none
attr source packetReceivedFromUpper
attr title "packets received from higher layer, vector(packetBytes)"
vector 4 MultiCell.server.ppp[0].ppp.queue packetPushed:vector(packetBytes) ETV
attr interpolationmode none
attr title "packet pushed, vector(packetBytes)"
vector 5 MultiCell.server.ppp[0].ppp.queue packetPulled:vector(packetBytes) ETV
attr interpolationmode none
attr title "packet pulled, vector(packetBytes)"
vector 6 MultiCell.server.ppp[0].ppp txPk:vector(packetBytes) ETV
attr interpolationmode none
attr source packetSentToLower
attr title "packets transmitted, vector(packetBytes)"
vector 7 MultiCell.router.ppp[0].ppp rxPkOk:vector(packetBytes) ETV
attr interpolationmode none
attr source rxPkOk
attr title "packets received OK, vector(packetBytes)"
vector 8 MultiCell.router.ppp[0].ppp passedUpPk:vector(packetBytes) ETV
attr interpolationmode none
attr source packetSentToUpper
attr title "packets passed to higher layer, vector(packetBytes)"
vector 9 MultiCell.router.ppp[1].ppp rcvdPkFromHl:vector(packetBytes) ETV
attr interpolationmode none
attr source packetReceivedFromUpper
attr title "packets received from higher layer, vector(packetBytes)"
vector 10 MultiCell.router.ppp[1].ppp.queue packetPushed:vector(packetBytes) ETV
attr interpolationmode none
attr title "packet pushed, vector(packetBytes)"
vector 11 MultiCell.router.ppp[1].ppp.queue packetPulled:vector(packetBytes) ETV
attr interpolationmode none
attr title "packet pulled, vector(packetBytes)"
vector 12 MultiCell.router.ppp[1].ppp txPk:vector(packetBytes) ETV
attr interpolationmode none
attr source packetSentToLower
attr title "packets transmitted, vector(packetBytes)"
vector 13 MultiCell.pgw.pppIf.ppp rxPkOk:vector(packetBytes) ETV
attr interpolationmode none
attr source rxPkOk
attr title "packets received OK, vector(packetBytes)"
vector 14 MultiCell.pgw.pppIf.ppp passedUpPk:vector(packetBytes) ETV
attr interpolationmode none
attr source packetSentToUpper
attr title "packets passed to higher layer, vector(packetBytes)"
vector 15 MultiCell.pgw.udp packetSent:vector(packetBytes) ETV
attr interpolationmode none
attr source packetSent
attr title "packets sent, vector(packetBytes)"
vector 16 MultiCell.pgw.ppp[0].ppp rcvdPkFromHl:vector(packetBytes) ETV
attr interpolationmode none
attr source packetReceivedFromUpper
attr title "packets received from higher layer, vector(packetBytes)"
vector 17 MultiCell.pgw.ppp[0].ppp.queue packetPushed:vector(packetBytes) ETV
attr interpolationmode none
attr title "packet pushed, vector(packetBytes)"
vector 18 MultiCell.pgw.ppp[0].ppp.queue packetPulled:vector(packetBytes) ETV
attr interpolationmode none
attr title "packet pulled, vector(packetBytes)"
vector 19 MultiCell.pgw.ppp[0].ppp txPk:vector(packetBytes) ETV
attr interpolationmode none
attr source packetSentToLower
attr title "packets transmitted, vector(packetBytes)"
vector 20 MultiCell.eNB1.pppIf.ppp rxPkOk:vector(packetBytes) ETV
attr interpolationmode none
attr source rxPkOk
attr title "packets received OK, vector(packetBytes)"
vector 21 MultiCell.eNB1.pppIf.ppp passedUpPk:vector(packetBytes) ETV
attr interpolationmode none
attr source packetSentToUpper
attr title "packets passed to higher layer, vector(packetBytes)"
vector 22 MultiCell.eNB1.udp packetReceived:vector(packetBytes) ETV
attr interpolationmode none
attr source packetReceived
attr title "packets received, vector(packetBytes)"
vector 23 MultiCell.eNB1.udp passedUpPk:vector(count) ETV
attr interpolationmode none
attr source packetSentToUpper
attr title "packets passed up, vector(count)"
vector 24 MultiCell.eNB1.cellularNic.pdcpRrc receivedPacketFromUpperLayer:vector(packetBytes) ETV
attr interpolationmode none
attr source receivedPacketFromUpperLayer
vector 25 MultiCell.eNB1.cellularNic.pdcpRrc sentPacketToLowerLayer:vector(packetBytes) ETV
attr interpolationmode none
attr source sentPacketToLowerLayer
vector 26 MultiCell.eNB1.cellularNic.rlc.um receivedPacketFromUpperLayer:vector(packetBytes) ETV
attr interpolationmode none
attr source receivedPacketFromUpperLayer
vector 27 MultiCell.eNB1.cellularNic.mac receivedPacketFromUpperLayer:vector(packetBytes) ETV
attr interpolationmode none
attr source receivedPacketFromUpperLayer
vector 28 MultiCell.eNB1.cellularNic.mac sentPacketToUpperLayer:vector(packetBytes) ETV
attr interpolationmode none
attr source sentPacketToUpperLayer
vector 29 MultiCell.eNB1.cellularNic.rlc.um sentPacketToLowerLayer:vector(packetBytes) ETV
attr interpolationmode none
attr source sentPacketToLowerLayer
vector 30 MultiCell.eNB1.cellularNic.mac sentPacketToLowerLayer:vector(packetBytes) ETV
attr interpolationmode none
attr source sentPacketToLowerLayer
vector 31 MultiCell.ue12.cellularNic.mac receivedPacketFromLowerLayer:vector(packetBytes) ETV
attr interpolationmode none
attr source receivedPacketFromLowerLayer
vector 32 MultiCell.pgw.ppp[1].ppp rcvdPkFromHl:vector(packetBytes) ETV
attr interpolationmode none
attr source packetReceivedFromUpper
attr title "packets received from higher layer, vector(packetBytes)"
vector 33 MultiCell.pgw.ppp[1].ppp.queue packetPushed:vector(packetBytes) ETV
attr interpolationmode none
attr title "packet pushed, vector(packetBytes)"
vector 34 MultiCell.pgw.ppp[1].ppp.queue packetPulled:vector(packetBytes) ETV
attr interpolationmode none
attr title "packet pulled, vector(packetBytes)"
vector 35 MultiCell.pgw.ppp[1].ppp txPk:vector(packetBytes) ETV
attr interpolationmode none
attr source packetSentToLower
attr title "packets transmitted, vector(packetBytes)"
vector 36 MultiCell.eNB2.pppIf.ppp rxPkOk:vector(packetBytes) ETV
attr interpolationmode none
attr source rxPkOk
attr title "packets received OK, vector(packetBytes)"
vector 37 MultiCell.eNB2.pppIf.ppp passedUpPk:vector(packetBytes) ETV
attr interpolationmode none
attr source packetSentToUpper
attr title "packets passed to higher layer, vector(packetBytes)"
vector 38 MultiCell.eNB2.udp packetReceived:vector(packetBytes) ETV
attr interpolationmode none
attr source packetReceived
attr title "packets received, vector(packetBytes)"
vector 39 MultiCell.eNB2.udp passedUpPk:vector(count) ETV
attr interpolationmode none
attr source packetSentToUpper
attr title "packets passed up, vector(count)"
vector 40 MultiCell.eNB2.cellularNic.pdcpRrc receivedPacketFromUpperLayer:vector(packetBytes) ETV
attr interpolationmode none
attr source receivedPacketFromUpperLayer
vector 41 MultiCell.eNB2.cellularNic.pdcpRrc sentPacketToLowerLayer:vector(packetBytes) ETV
attr interpolationmode none
attr source sentPacketToLowerLayer
vector 42 MultiCell.eNB2.cellularNic.rlc.um receivedPacketFromUpperLayer:vector(packetBytes) ETV
attr interpolationmode none
attr source receivedPacketFromUpperLayer
vector 43 MultiCell.eNB2.cellularNic.mac receivedPacketFromUpperLayer:vector(packetBytes) ETV
attr interpolationmode none
attr source receivedPacketFromUpperLayer
vector 44 MultiCell.eNB2.cellularNic.mac sentPacketToUpperLayer:vector(packetBytes) ETV
attr interpolationmode none
attr source sentPacketToUpperLayer
vector 45 MultiCell.eNB2.cellularNic.rlc.um sentPacketToLowerLayer:vector(packetBytes) ETV
attr interpolationmode none
attr source sentPacketToLowerLayer
vector 46 MultiCell.eNB2.cellularNic.mac sentPacketToLowerLayer:vector(packetBytes) ETV
attr interpolationmode none
attr source sentPacketToLowerLayer
vector 47 MultiCell.ue21.cellularNic.mac receivedPacketFromLowerLayer:vector(packetBytes) ETV
attr interpolationmode none
attr source receivedPacketFromLowerLayer
vector 48 MultiCell.ue12.cellularNic.mac sentPacketToLowerLayer:vector(packetBytes) ETV
attr interpolationmode none
attr source sentPacketToLowerLayer
vector 49 MultiCell.ue12.cellularNic.mac sentPacketToUpperLayer:vector(packetBytes) ETV
attr interpolationmode none
attr source sentPacketToUpperLayer
vector 50 MultiCell.ue12.cellularNic.rlc.um receivedPacketFromLowerLayer:vector(packetBytes) ETV
attr interpolationmode none
attr source receivedPacketFromLowerLayer
vector 51 MultiCell.ue12.cellularNic.rlc.um sentPacketToUpperLayer:vector(packetBytes) ETV
attr interpolationmode none
attr source sentPacketToUpperLayer
vector 52 MultiCell.ue12.cellularNic.pdcpRrc receivedPacketFromLowerLayer:vector(packetBytes) ETV
attr interpolationmode none
attr source receivedPacketFromLowerLayer
vector 53 MultiCell.ue12.cellularNic.pdcpRrc sentPacketToUpperLayer:vector(packetBytes) ETV
attr interpolationmode none
attr source sentPacketToUpperLayer
vector 54 MultiCell.ue12.udp packetReceived:vector(packetBytes) ETV
attr interpolationmode none
attr source packetReceived
attr title "packets received, vector(packetBytes)"
vector 55 MultiCell.ue12.udp passedUpPk:vector(count) ETV
attr interpolationmode none
attr source packetSentToUpper
attr title "packets passed up, vector(count)"
vector 56 MultiCell.ue21.cellularNic.mac sentPacketToLowerLayer:vector(packetBytes) ETV
attr interpolationmode none
attr source sentPacketToLowerLayer
vector 57 MultiCell.ue21.cellularNic.mac sentPacketToUpperLayer:vector(packetBytes) ETV
attr interpolationmode none
attr source sentPacketToUpperLayer
vector 58 MultiCell.ue21.cellularNic.rlc.um receivedPacketFromLowerLayer:vector(packetBytes) ETV
attr interpolationmode none
attr source receivedPacketFromLowerLayer
vector 59 MultiCell.ue21.cellularNic.rlc.um sentPacketToUpperLayer:vector(packetBytes) ETV
attr interpolationmode none
attr source sentPacketToUpperLayer
vector 60 MultiCell.ue21.cellularNic.pdcpRrc receivedPacketFromLowerLayer:vector(packetBytes) ETV
attr interpolationmode none
attr source receivedPacketFromLowerLayer
vector 61 MultiCell.ue21.cellularNic.pdcpRrc sentPacketToUpperLayer:vector(packetBytes) ETV
attr interpolationmode none
attr source sentPacketToUpperLayer
vector 62 MultiCell.ue21.udp packetReceived:vector(packetBytes) ETV
attr interpolationmode none
attr source packetReceived
attr title "packets received, vector(packetBytes)"
vector 63 MultiCell.ue21.udp passedUpPk:vector(count) ETV
attr interpolationmode none
attr source packetSentToUpper
attr title "packets passed up, vector(count)"
vector 64 MultiCell.ue11.cellularNic.mac receivedPacketFromLowerLayer:vector(packetBytes) ETV
attr interpolationmode none
attr source receivedPacketFromLowerLayer
vector 65 MultiCell.ue22.cellularNic.mac receivedPacketFromLowerLayer:vector(packetBytes) ETV
attr interpolationmode none
attr source receivedPacketFromLowerLayer
vector 66 MultiCell.ue11.cellularNic.mac sentPacketToLowerLayer:vector(packetBytes) ETV
attr interpolationmode none
attr source sentPacketToLowerLayer
vector 67 MultiCell.ue11.cellularNic.mac sentPacketToUpperLayer:vector(packetBytes) ETV
attr interpolationmode none
attr source sentPacketToUpperLayer
vector 68 MultiCell.ue11.cellularNic.rlc.um receivedPacketFromLowerLayer:vector(packetBytes) ETV
attr interpolationmode none
attr source receivedPacketFromLowerLayer
vector 69 MultiCell.ue11.cellularNic.rlc.um sentPacketToUpperLayer:vector(packetBytes) ETV
attr interpolationmode none
attr source sentPacketToUpperLayer
vector 70 MultiCell.ue11.cellularNic.pdcpRrc receivedPacketFromLowerLayer:vector(packetBytes) ETV
attr interpolationmode none
attr source receivedPacketFromLowerLayer
vector 71 MultiCell.ue11.cellularNic.pdcpRrc sentPacketToUpperLayer:vector(packetBytes) ETV
attr interpolationmode none
attr source sentPacketToUpperLayer
vector 72 MultiCell.ue11.udp packetReceived:vector(packetBytes) ETV
attr interpolationmode none
attr source packetReceived
attr title "packets received, vector(packetBytes)"
vector 73 MultiCell.ue11.udp passedUpPk:vector(count) ETV
attr interpolationmode none
attr source packetSentToUpper
attr title "packets passed up, vector(count)"
vector 74 MultiCell.ue22.cellularNic.mac sentPacketToLowerLayer:vector(packetBytes) ETV
attr interpolationmode none
attr source sentPacketToLowerLayer
vector 75 MultiCell.ue22.cellularNic.mac sentPacketToUpperLayer:vector(packetBytes) ETV
attr interpolationmode none
attr source sentPacketToUpperLayer
vector 76 MultiCell.ue22.cellularNic.rlc.um receivedPacketFromLowerLayer:vector(packetBytes) ETV
attr interpolationmode none
attr source receivedPacketFromLowerLayer
vector 77 MultiCell.ue22.cellularNic.rlc.um sentPacketToUpperLayer:vector(packetBytes) ETV
attr interpolationmode none
attr source sentPacketToUpperLayer
vector 78 MultiCell.ue22.cellularNic.pdcpRrc receivedPacketFromLowerLayer:vector(packetBytes) ETV
attr interpolationmode none
attr source receivedPacketFromLowerLayer
vector 79 MultiCell.ue22.cellularNic.pdcpRrc sentPacketToUpperLayer:vector(packetBytes) ETV
attr interpolationmode none
attr source sentPacketToUpperLayer
vector 80 MultiCell.ue22.udp packetReceived:vector(packetBytes) ETV
attr interpolationmode none
attr source packetReceived
attr title "packets received, vector(packetBytes)"
vector 81 MultiCell.ue22.udp passedUpPk:vector(count) ETV
attr interpolationmode none
attr source packetSentToUpper
attr title "packets passed up, vector(count)"
0	41	0.002	1
0	43	0.002	1
0	136	0.008	1
0	138	0.008	1
0	235	0.013	1
0	253	0.014	1
0	255	0.014	1
0	383	0.02	1
0	385	0.02	1
0	417	0.022	1
0	469	0.026	1
0	471	0.026	1
0	605	0.032	1
0	607	0.032	1
0	621	0.033	1
0	711	0.038	1
0	713	0.038	1
0	797	0.042	1
0	827	0.044	1
0	829	0.044	1
0	955	0.05	1
0	957	0.05	1
1	45	0.002	1
1	47	0.002	1
1	140	0.008	1
1	142	0.008	1
1	257	0.014	1
1	259	0.014	1
1	269	0.015	1
1	387	0.02	1
1	389	0.02	1
1	447	0.024	1
1	473	0.026	1
1	475	0.026	1
1	609	0.032	1
1	611	0.032	1
1	647	0.035	1
1	715	0.038	1
1	717	0.038	1
1	831	0.044	1
1	833	0.044	1
1	835	0.044	1
1	959	0.05	1
1	961	0.05	1
2	98	0.007138078413	48
2	155	0.00952167965	48
2	280	0.016230369485	48
2	333	0.01867679981	48
2	485	0.027138078413	48
2	533	0.02952167965	48
2	661	0.036230369485	48
2	721	0.03867679981	48
2	861	0.047138078413	48
2	917	0.04952167965	48
3	100	0.007138078413	68
3	157	0.00952167965	68
3	282	0.016230369485	68
3	335	0.01867679981	68
3	487	0.027138078413	68
3	535	0.02952167965	68
3	663	0.036230369485	68
3	723	0.03867679981	68
3	863	0.047138078413	68
3	919	0.04952167965	68
4	100	0.007138078413	68
4	157	0.00952167965	68
4	282	0.016230369485	68
4	335	0.01867679981	68
4	487	0.027138078413	68
4	535	0.02952167965	68
4	663	0.036230369485	68
4	723	0.03867679981	68
4	863	0.047138078413	68
4	919	0.04952167965	68
5	100	0.007138078413	68
5	157	0.00952167965	68
5	282	0.016230369485	68
5	335	0.01867679981	68
5	487	0.027138078413	68
5	535	0.02952167965	68
5	663	0.036230369485	68
5	723	0.03867679981	68
5	863	0.047138078413	68
5	919	0.04952167965	68
6	100	0.007138078413	75
6	157	0.00952167965	75
6	282	0.016230369485	75
6	335	0.01867679981	75
6	487	0.027138078413	75
6	535	0.02952167965	75
6	663	0.036230369485	75
6	723	0.03867679981	75
6	863	0.047138078413	75
6	919	0.04952167965	75
7	102	0.007138188413	75
7	159	0.00952178965	75
7	284	0.016230479485	75
7	337	0.01867690981	75
7	489	0.027138188413	75
7	537	0.02952178965	75
7	665	0.036230479485	75
7	725	0.03867690981	75
7	865	0.047138188413	75
7	921	0.04952178965	75
8	102	0.007138188413	68
8	159	0.00952178965	68
8	284	0.016230479485	68
8	337	0.01867690981	68
8	489	0.027138188413	68
8	537	0.02952178965	68
8	665	0.036230479485	68
8	725	0.03867690981	68
8	865	0.047138188413	68
8	921	0.04952178965	68
9	104	0.007138188413	68
9	161	0.00952178965	68
9	286	0.016230479485	68
9	339	0.01867690981	68
9	491	0.027138188413	68
9	539	0.02952178965	68
9	667	0.036230479485	68
9	727	0.03867690981	68
9	867	0.047138188413	68
9	923	0.04952178965	68
10	104	0.007138188413	68
10	161	0.00952178965	68
10	286	0.016230479485	68
10	339	0.01867690981	68
10	491	0.027138188413	68
10	539	0.02952178965	68
10	667	0.036230479485	68
10	727	0.03867690981	68
10	867	0.047138188413	68
10	923	0.04952178965	68
11	104	0.007138188413	68
11	161	0.00952178965	68
11	286	0.016230479485	68
11	339	0.01867690981	68
11	491	0.027138188413	68
11	539	0.02952178965	68
11	667	0.036230479485	68
11	727	0.03867690981	68
11	867	0.047138188413	68
11	923	0.04952178965	68
12	104	0.007138188413	75
12	161	0.00952178965	75
12	286	0.016230479485	75
12	339	0.01867690981	75
12	491	0.027138188413	75
12	539	0.02952178965	75
12	667	0.036230479485	75
12	727	0.03867690981	75
12	867	0.047138188413	75
12	923	0.04952178965	75
13	106	0.007138298413	75
13	163	0.00952189965	75
13	288	0.016230589485	75
13	341	0.01867701981	75
13	493	0.027138298413	75
13	541	0.02952189965	75
13	669	0.036230589485	75
13	729	0.03867701981	75
13	869	0.047138298413	75
13	925	0.04952189965	75
14	106	0.007138298413	68
14	163	0.00952189965	68
14	288	0.016230589485	68
14	341	0.01867701981	68
14	493	0.027138298413	68
14	541	0.02952189965	68
14	669	0.036230589485	68
14	729	0.03867701981	68
14	869	0.047138298413	68
14	925	0.04952189965	68
15	109	0.007138298413	84
15	166	0.00952189965	84
15	291	0.016230589485	84
15	344	0.01867701981	84
15	496	0.027138298413	84
15	544	0.02952189965	84
15	672	0.036230589485	84
15	732	0.03867701981	84
15	872	0.047138298413	84
15	928	0.04952189965	84
16	111	0.007138298413	104
16	293	0.016230589485	104
16	498	0.027138298413	104
16	674	0.036230589485	104
16	874	0.047138298413	104
17	111	0.007138298413	104
17	293	0.016230589485	104
17	498	0.027138298413	104
17	674	0.036230589485	104
17	874	0.047138298413	104
18	111	0.007138298413	104
18	293	0.016230589485	104
18	498	0.027138298413	104
18	674	0.036230589485	104
18	874	0.047138298413	104
19	111	0.007138298413	111
19	293	0.016230589485	111
19	498	0.027138298413	111
19	674	0.036230589485	111
19	874	0.047138298413	111
20	113	0.007138437213	111
20	295	0.016230728285	111
20	500	0.027138437213	111
20	676	0.036230728285	111
20	876	0.047138437213	111
21	113	0.007138437213	104
21	295	0.016230728285	104
21	500	0.027138437213	104
21	676	0.036230728285	104
21	876	0.047138437213	104
22	115	0.007138437213	84
22	297	0.016230728285	84
22	502	0.027138437213	84
22	678	0.036230728285	84
22	878	0.047138437213	84
23	115	0.007138437213	1
23	297	0.016230728285	2
23	502	0.027138437213	3
23	678	0.036230728285	4
23	878	0.047138437213	5
24	118	0.007138437213	68
24	300	0.016230728285	68
24	505	0.027138437213	68
24	681	0.036230728285	68
24	881	0.047138437213	68
25	118	0.007138437213	69
25	300	0.016230728285	69
25	505	0.027138437213	69
25	681	0.036230728285	69
25	881	0.047138437213	69
26	119	0.007138437213	69
26	301	0.016230728285	69
26	506	0.027138437213	69
26	682	0.036230728285	69
26	882	0.047138437213	69
27	121	0.007138437213	71
27	126	0.008	71
27	303	0.016230728285	71
27	308	0.017	71
27	508	0.027138437213	71
27	513	0.028	71
27	684	0.036230728285	71
27	693	0.037	71
27	884	0.047138437213	71
27	893	0.048	71
28	122	0.008	1
28	304	0.017	1
28	509	0.028	1
28	689	0.037	1
28	889	0.048	1
29	124	0.008	71
29	306	0.017	71
29	511	0.028	71
29	691	0.037	71
29	891	0.048	71
30	132	0.008	73
30	314	0.017	73
30	519	0.028	73
30	699	0.037	73
30	899	0.048	73
31	152	0.009	73
31	531	0.029	73
31	915	0.049	73
32	168	0.00952189965	104
32	346	0.01867701981	104
32	546	0.02952189965	104
32	734	0.03867701981	104
32	930	0.04952189965	104
33	168	0.00952189965	104
33	346	0.01867701981	104
33	546	0.02952189965	104
33	734	0.03867701981	104
33	930	0.04952189965	104
34	168	0.00952189965	104
34	346	0.01867701981	104
34	546	0.02952189965	104
34	734	0.03867701981	104
34	930	0.04952189965	104
35	168	0.00952189965	111
35	346	0.01867701981	111
35	546	0.02952189965	111
35	734	0.03867701981	111
35	930	0.04952189965	111
36	170	0.00952203845	111
36	348	0.01867715861	111
36	548	0.02952203845	111
36	736	0.03867715861	111
36	932	0.04952203845	111
37	170	0.00952203845	104
37	348	0.01867715861	104
37	548	0.02952203845	104
37	736	0.03867715861	104
37	932	0.04952203845	104
38	172	0.00952203845	84
38	350	0.01867715861	84
38	550	0.02952203845	84
38	738	0.03867715861	84
38	934	0.04952203845	84
39	172	0.00952203845	1
39	350	0.01867715861	2
39	550	0.02952203845	3
39	738	0.03867715861	4
39	934	0.04952203845	5
40	175	0.00952203845	68
40	353	0.01867715861	68
40	553	0.02952203845	68
40	741	0.03867715861	68
40	937	0.04952203845	68
41	175	0.00952203845	69
41	353	0.01867715861	69
41	553	0.02952203845	69
41	741	0.03867715861	69
41	937	0.04952203845	69
42	176	0.00952203845	69
42	354	0.01867715861	69
42	554	0.02952203845	69
42	742	0.03867715861	69
42	938	0.04952203845	69
43	178	0.00952203845	71
43	184	0.01	71
43	356	0.01867715861	71
43	366	0.019	71
43	556	0.02952203845	71
43	566	0.03	71
43	744	0.03867715861	71
43	750	0.039	71
43	940	0.04952203845	71
43	946	0.05	71
44	180	0.01	1
44	362	0.019	1
44	562	0.03	1
44	746	0.039	1
44	942	0.05	1
45	182	0.01	71
45	364	0.019	71
45	564	0.03	71
45	748	0.039	71
45	944	0.05	71
46	190	0.01	73
46	372	0.019	73
46	572	0.03	73
46	756	0.039	73
46	952	0.05	73
47	201	0.011	73
47	587	0.031	73
47	971	0.051	73
48	209	0.012	1
48	591	0.032	1
48	975	0.052	1
49	209	0.012	71
49	591	0.032	71
49	975	0.052	71
50	212	0.012	71
50	594	0.032	71
51	212	0.012	69
51	594	0.032	69
52	213	0.012	69
52	595	0.032	69
53	213	0.012	68
53	595	0.032	68
54	216	0.012	48
54	598	0.032	48
55	216	0.012	1
55	598	0.032	2
56	240	0.014	1
56	626	0.034	1
57	240	0.014	71
57	626	0.034	71
58	243	0.014	71
58	629	0.034	71
59	243	0.014	69
59	629	0.034	69
60	244	0.014	69
60	630	0.034	69
61	244	0.014	68
61	630	0.034	68
62	247	0.014	48
62	633	0.034	48
63	247	0.014	1
63	633	0.034	2
64	330	0.018	73
64	719	0.038	73
65	391	0.02	73
65	767	0.04	73
66	394	0.021	1
66	770	0.041	1
67	394	0.021	71
67	770	0.041	71
68	397	0.021	71
68	773	0.041	71
69	397	0.021	69
69	773	0.041	69
70	398	0.021	69
70	774	0.041	69
71	398	0.021	68
71	774	0.041	68
72	401	0.021	48
72	777	0.041	48
73	401	0.021	1
73	777	0.041	2
74	423	0.023	1
74	807	0.043	1
75	423	0.023	71
75	807	0.043	71
76	426	0.023	71
76	810	0.043	71
77	426	0.023	69
77	810	0.043	69
78	427	0.023	69
78	811	0.043	69
79	427	0.023	68
79	811	0.043	68
80	430	0.023	48
80	814	0.043	48
81	430	0.023	1
81	814	0.043	2
0	997	0.053	1
0	1041	0.056	1
0	1043	0.056	1
0	1177	0.062	1
0	1179	0.062	1
0	1185	0.062	1
0	1283	0.068	1
0	1285	0.068	1
0	1381	0.073	1
0	1399	0.074	1
0	1401	0.074	1
0	1527	0.08	1
0	1529	0.08	1
0	1561	0.082	1
0	1614	0.086	1
0	1616	0.086	1
0	1718	0.092	1
0	1720	0.092	1
0	1734	0.093	1
0	1814	0.098	1
0	1816	0.098	1
0	1900	0.102	1
0	1930	0.104	1
0	1932	0.104	1
0	2028	0.11	1
0	2030	0.11	1
0	2068	0.113	1
0	2102	0.116	1
0	2104	0.116	1
0	2238	0.122	1
0	2240	0.122	1
0	2246	0.122	1
0	2344	0.128	1
0	2346	0.128	1
0	2410	0.133	1
0	2420	0.134	1
0	2422	0.134	1
0	2546	0.14	1
0	2548	0.14	1
0	2580	0.142	1
0	2632	0.146	1
0	2634	0.146	1
0	2736	0.152	1
0	2738	0.152	1
0	2752	0.153	1
0	2832	0.158	1
0	2834	0.158	1
0	2918	0.162	1
0	2948	0.164	1
0	2950	0.164	1
0	3046	0.17	1
0	3048	0.17	1
0	3086	0.173	1
0	3120	0.176	1
0	3122	0.176	1
0	3256	0.182	1
0	3258	0.182	1
0	3264	0.182	1
0	3362	0.188	1
0	3364	0.188	1
0	3428	0.193	1
0	3438	0.194	1
0	3440	0.194	1
0	3564	0.2	1
0	3566	0.2	1
0	3598	0.202	1
0	3650	0.206	1
0	3652	0.206	1
0	3754	0.212	1
0	3756	0.212	1
0	3770	0.213	1
0	3850	0.218	1
0	3852	0.218	1
0	3936	0.222	1
0	3966	0.224	1
0	3968	0.224	1
0	4064	0.23	1
0	4066	0.23	1
0	4104	0.233	1
0	4138	0.236	1
0	4140	0.236	1
0	4274	0.242	1
0	4276	0.242	1
0	4282	0.242	1
0	4380	0.248	1
0	4382	0.248	1
0	4446	0.253	1
0	4456	0.254	1
0	4458	0.254	1
0	4582	0.26	1
0	4584	0.26	1
0	4616	0.262	1
0	4668	0.266	1
0	4670	0.266	1
0	4772	0.272	1
0	4774	0.272	1
0	4788	0.273	1
0	4868	0.278	1
0	4870	0.278	1
0	4954	0.282	1
0	4984	0.284	1
0	4986	0.284	1
0	5082	0.29	1
0	5084	0.29	1
0	5122	0.293	1
0	5156	0.296	1
0	5158	0.296	1
0	5292	0.302	1
0	5294	0.302	1
0	5300	0.302	1
0	5398	0.308	1
0	5400	0.308	1
0	5464	0.313	1
0	5474	0.314	1
0	5476	0.314	1
0	5600	0.32	1
0	5602	0.32	1
0	5634	0.322	1
0	5686	0.326	1
0	5688	0.326	1
0	5790	0.332	1
0	5792	0.332	1
0	5806	0.333	1
0	5886	0.338	1
0	5888	0.338	1
0	5972	0.342	1
0	6002	0.344	1
0	6004	0.344	1
0	6100	0.35	1
0	6102	0.35	1
0	6140	0.353	1
0	6174	0.356	1
0	6176	0.356	1
0	6310	0.362	1
0	6312	0.362	1
0	6318	0.362	1
0	6416	0.368	1
0	6418	0.368	1
0	6482	0.373	1
0	6492	0.374	1
0	6494	0.374	1
0	6618	0.38	1
0	6620	0.38	1
0	6652	0.382	1
0	6704	0.386	1
0	6706	0.386	1
0	6809	0.392	1
0	6811	0.392	1
0	6825	0.393	1
0	6905	0.398	1
0	6907	0.398	1
0	6991	0.402	1
0	7021	0.404	1
0	7023	0.404	1
0	7087	0.41	1
0	7089	0.41	1
0	7151	0.416	1
0	7153	0.416	1
0	7287	0.422	1
0	7289	0.422	1
0	7295	0.422	1
0	7363	0.428	1
0	7365	0.428	1
0	7427	0.434	1
0	7429	0.434	1
0	7553	0.44	1
0	7555	0.44	1
0	7587	0.442	1
0	7639	0.446	1
0	7641	0.446	1
0	7703	0.452	1
0	7705	0.452	1
0	7797	0.458	1
0	7799	0.458	1
0	7883	0.462	1
0	7913	0.464	1
0	7915	0.464	1
0	7979	0.47	1
0	7981	0.47	1
0	8043	0.476	1
0	8045	0.476	1
0	8179	0.482	1
0	8181	0.482	1
0	8187	0.482	1
0	8255	0.488	1
0	8257	0.488	1
0	8319	0.494	1
0	8321	0.494	1
0	8445	0.5	1
0	8447	0.5	1
0	8479	0.502	1
0	8531	0.506	1
0	8533	0.506	1
0	8595	0.512	1
0	8597	0.512	1
0	8689	0.518	1
0	8691	0.518	1
0	8775	0.522	1
0	8805	0.524	1
0	8807	0.524	1
0	8871	0.53	1
0	8873	0.53	1
0	8935	0.536	1
0	8937	0.536	1
0	9071	0.542	1
0	9073	0.542	1
0	9079	0.542	1
0	9147	0.548	1
0	9149	0.548	1
0	9211	0.554	1
0	9213	0.554	1
0	9337	0.56	1
0	9339	0.56	1
0	9371	0.562	1
0	9423	0.566	1
0	9425	0.566	1
0	9487	0.572	1
0	9489	0.572	1
0	9581	0.578	1
0	9583	0.578	1
0	9667	0.582	1
0	9697	0.584	1
0	9699	0.584	1
0	9763	0.59	1
0	9765	0.59	1
0	9827	0.596	1
0	9829	0.596	1
0	9963	0.602	1
0	9965	0.602	1
0	9971	0.602	1
0	10039	0.608	1
0	10041	0.608	1
0	10103	0.614	1
0	10105	0.614	1
0	10229	0.62	1
0	10231	0.62	1
0	10263	0.622	1
0	10315	0.626	1
0	10317	0.626	1
0	10379	0.632	1
0	10381	0.632	1
0	10473	0.638	1
0	10475	0.638	1
0	10559	0.642	1
0	10589	0.644	1
0	10591	0.644	1
0	10655	0.65	1
0	10657	0.65	1
0	10719	0.656	1
0	10721	0.656	1
0	10855	0.662	1
0	10857	0.662	1
0	10863	0.662	1
0	10931	0.668	1
0	10933	0.668	1
0	10995	0.674	1
0	10997	0.674	1
0	11121	0.68	1
0	11123	0.68	1
0	11155	0.682	1
0	11207	0.686	1
0	11209	0.686	1
0	11271	0.692	1
0	11273	0.692	1
0	11365	0.698	1
0	11367	0.698	1
0	11451	0.702	1
0	11481	0.704	1
0	11483	0.704	1
0	11547	0.71	1
0	11549	0.71	1
0	11611	0.716	1
0	11613	0.716	1
0	11747	0.722	1
0	11749	0.722	1
0	11755	0.722	1
0	11823	0.728	1
0	11825	0.728	1
0	11887	0.734	1
0	11889	0.734	1
0	12013	0.74	1
0	12015	0.74	1
0	12047	0.742	1
0	12099	0.746	1
0	12101	0.746	1
0	12163	0.752	1
0	12165	0.752	1
0	12257	0.758	1
0	12259	0.758	1
0	12343	0.762	1
0	12373	0.764	1
0	12375	0.764	1
0	12439	0.77	1
0	12441	0.77	1
0	12503	0.776	1
0	12505	0.776	1
0	12639	0.782	1
0	12641	0.782	1
0	12647	0.782	1
0	12715	0.788	1
0	12717	0.788	1
0	12779	0.794	1
0	12781	0.794	1
0	12905	0.8	1
0	12907	0.8	1
0	12939	0.802	1
0	12991	0.806	1
0	12993	0.806	1
0	13055	0.812	1
0	13057	0.812	1
0	13149	0.818	1
0	13151	0.818	1
0	13235	0.822	1
0	13265	0.824	1
0	13267	0.824	1
0	13331	0.83	1
0	13333	0.83	1
0	13395	0.836	1
0	13397	0.836	1
0	13531	0.842	1
0	13533	0.842	1
0	13539	0.842	1
0	13648	0.848	1
0	13650	0.848	1
0	13664	0.849	1
0	13714	0.854	1
0	13716	0.854	1
0	13840	0.86	1
0	13842	0.86	1
0	13874	0.862	1
0	13958	0.866	1
0	13960	0.866	1
0	13998	0.869	1
0	14032	0.872	1
0	14034	0.872	1
0	14126	0.878	1
0	14128	0.878	1
0	14212	0.882	1
0	14272	0.884	1
0	14274	0.884	1
0	14340	0.889	1
0	14350	0.89	1
0	14352	0.89	1
0	14414	0.896	1
0	14416	0.896	1
0	14550	0.902	1
0	14552	0.902	1
0	14558	0.902	1
0	14666	0.908	1
0	14668	0.908	1
0	14682	0.909	1
0	14732	0.914	1
0	14734	0.914	1
0	14858	0.92	1
0	14860	0.92	1
0	14892	0.922	1
0	14976	0.926	1
0	14978	0.926	1
0	15016	0.929	1
0	15050	0.932	1
0	15052	0.932	1
0	15144	0.938	1
0	15146	0.938	1
0	15230	0.942	1
0	15290	0.944	1
0	15292	0.944	1
0	15358	0.949	1
0	15368	0.95	1
0	15370	0.95	1
0	15432	0.956	1
0	15434	0.956	1
0	15568	0.962	1
0	15570	0.962	1
0	15576	0.962	1
0	15684	0.968	1
0	15686	0.968	1
0	15700	0.969	1
0	15750	0.974	1
0	15752	0.974	1
0	15876	0.98	1
0	15878	0.98	1
0	15910	0.982	1
0	15994	0.986	1
0	15996	0.986	1
0	16034	0.989	1
0	16068	0.992	1